 Gaussian 16, Revision B.01,
 Gaussian 16:  ES64L-G16RevB.01 20-Dec-2017

 -----------------------------------------------------------------
 #T b3lyp/6-31+G* integral=UltraFine opt(maxstep=10,maxcycles=200)
 -----------------------------------------------------------------
 ------------------
 4-BMC-optimization
 ------------------
 Symbolic Z-matrix:
 Charge =  0 Multiplicity = 1

 SCF Done:  E(RB3LYP) =  -774.349051856     A.U. after   17 cycles
 SCF Done:  E(RB3LYP) =  -774.385229031     A.U. after   17 cycles
 SCF Done:  E(RB3LYP) =  -774.393966994     A.U. after   18 cycles
 SCF Done:  E(RB3LYP) =  -774.404953888     A.U. after   16 cycles
 SCF Done:  E(RB3LYP) =  -774.407622562     A.U. after   15 cycles
 SCF Done:  E(RB3LYP) =  -774.407521494     A.U. after   16 cycles
 SCF Done:  E(RB3LYP) =  -774.408537091     A.U. after   13 cycles
 SCF Done:  E(RB3LYP) =  -774.408663826     A.U. after   14 cycles
 SCF Done:  E(RB3LYP) =  -774.408687075     A.U. after   14 cycles
 SCF Done:  E(RB3LYP) =  -774.408693031     A.U. after   12 cycles
 SCF Done:  E(RB3LYP) =  -774.408694455     A.U. after   11 cycles
 SCF Done:  E(RB3LYP) =  -774.408694699     A.U. after   10 cycles
 SCF Done:  E(RB3LYP) =  -774.408694744     A.U. after    9 cycles
 Optimization completed.
    -- Stationary point found.

                         Standard orientation:
 ---------------------------------------------------------------------
 Center     Atomic      Atomic             Coordinates (Angstroms)
 Number     Number       Type             X           Y           Z
 ---------------------------------------------------------------------
      1          8           0       -0.430110    1.934296    0.135646
      2          6           0       -2.884462   -0.464465   -0.659221
      3          6           0       -2.619574    0.829360    0.194689
      4          6           0       -1.901639   -1.332841    0.192773
      5          6           0       -2.907822    0.325763    1.651586
      6          6           0       -2.458124   -1.166501    1.636174
      7          6           0       -0.611725   -0.522132    0.130635
      8          6           0       -1.082022    0.898306    0.141445
      9          6           0       -4.341387   -0.957406   -0.637318
     10          6           0       -2.460809   -0.331253   -2.134064
     11          6           0       -3.315150    2.126248   -0.180550
     12          1           0       -1.787209   -2.373296   -0.129792
     13          1           0       -3.975431    0.431859    1.874613
     14          1           0       -2.367842    0.926105    2.392053
     15          1           0       -1.691787   -1.384029    2.386639
     16          1           0       -3.296755   -1.846914    1.820195
     17          1           0       -4.766784   -1.041181    0.365894
     18          1           0       -4.409304   -1.946595   -1.108835
     19          1           0       -4.984104   -0.278882   -1.211366
     20          1           0       -2.533026   -1.303328   -2.638686
     21          1           0       -1.434087    0.026919   -2.258924
     22          1           0       -3.122283    0.363617   -2.665484
     23          1           0       -2.997111    2.938185    0.482635
     24          1           0       -4.404054    2.024914   -0.098690
     25          1           0       -3.072865    2.432526   -1.204466
     26          6           0        0.619876   -1.090669    0.087786
     27          1           0        0.594894   -2.183236    0.087026
     28          6           0        1.990416   -0.579501    0.035449
     29          6           0        2.364142    0.780111    0.034489
     30          6           0        3.026974   -1.539751   -0.017919
     31          6           0        3.709201    1.144577   -0.016784
     32          1           0        1.594913    1.541872    0.073329
     33          6           0        4.365115   -1.165597   -0.068954
     34          1           0        2.770298   -2.597346   -0.019865
     35          6           0        4.734535    0.189400   -0.068294
     36          1           0        3.966692    2.201851   -0.017216
     37          1           0        5.135152   -1.933742   -0.110360
     38          6           0        6.188851    0.595079   -0.111990
     39          1           0        6.712894    0.116202   -0.948635
     40          1           0        6.298647    1.678866   -0.222052
     41          1           0        6.711646    0.298900    0.807226
 ---------------------------------------------------------------------

 The electronic state is 1-A.
 Alpha  occ. eigenvalues --  -19.14440 -10.27182 -10.21394 -10.20817 -10.20782
 Alpha  occ. eigenvalues --  -10.20569 -10.20182 -10.20121 -10.19993 -10.19974
 Alpha  occ. eigenvalues --  -10.19452 -10.19342 -10.19141 -10.19111 -10.19046
 Alpha  occ. eigenvalues --  -10.18737 -10.18346 -10.17980 -10.17698  -1.03903
 Alpha  occ. eigenvalues --   -0.89048  -0.86427  -0.80661  -0.77211  -0.76662
 Alpha  occ. eigenvalues --   -0.74804  -0.74637  -0.71428  -0.68600  -0.67168
 Alpha  occ. eigenvalues --   -0.66637  -0.61886  -0.60693  -0.59286  -0.56708
 Alpha  occ. eigenvalues --   -0.53741  -0.51722  -0.49099  -0.48402  -0.47710
 Alpha  occ. eigenvalues --   -0.46797  -0.45975  -0.45409  -0.43866  -0.43076
 Alpha  occ. eigenvalues --   -0.42546  -0.41964  -0.41566  -0.41396  -0.40077
 Alpha  occ. eigenvalues --   -0.39718  -0.38794  -0.38694  -0.38422  -0.37837
 Alpha  occ. eigenvalues --   -0.37171  -0.36563  -0.35647  -0.34970  -0.34940
 Alpha  occ. eigenvalues --   -0.33928  -0.33585  -0.33362  -0.31779  -0.30199
 Alpha  occ. eigenvalues --   -0.29069  -0.25555  -0.24164  -0.22499
 Alpha virt. eigenvalues --   -0.07397  -0.01289  -0.00366  -0.00056   0.00754
 Alpha virt. eigenvalues --    0.01199   0.01629   0.02144   0.02829   0.03748
 Alpha virt. eigenvalues --    0.03879   0.04144   0.04289   0.04778   0.05080

 Mulliken charges:
               1
     1  O   -0.465489
     2  C   -0.534154
     3  C    0.502785
     4  C   -0.276183
     5  C   -0.521990
     6  C   -0.542853
     7  C    0.622997
     8  C   -0.391873
     9  C   -0.531842
    10  C   -0.633632
    11  C   -0.374806
    12  H    0.180467
    13  H    0.216626
    14  H    0.223206
    15  H    0.214465
    16  H    0.209378
    17  H    0.218684
    18  H    0.216536
    19  H    0.219936
    20  H    0.213394
    21  H    0.231180
    22  H    0.217372
    23  H    0.240118
    24  H    0.213081
    25  H    0.226476
    26  C   -0.113276
    27  H    0.169143
    28  C    0.433032
    29  C   -0.394954
    30  C   -0.107277
    31  C   -0.606636
    32  H    0.260638
    33  C   -0.187210
    34  H    0.175473
    35  C    0.245383
    36  H    0.175693
    37  H    0.175853
    38  C   -0.774851
    39  H    0.220507
    40  H    0.208211
    41  H    0.226391
 Sum of Mulliken charges =  -0.00000

 Dipole moment (field-independent basis, Debye):
    X=             -0.3604    Y=             -2.4357    Z=              0.0438  Tot=              2.4626
 1\1\GINC-BIGMEM001\FOpt\RB3LYP\6-31+G(d)\C18H22O1\BT-LOCAL\17-Apr-2019
 \0\\#T b3lyp/6-31+G* integral=UltraFine opt(maxstep=10,maxcycles=200)\
 \4-BMC-optimization\\0,1\O,0.0075901614,0.8003379494,0.0545195014\C,0.
 0004175257,-0.0621747035,3.4700335718\C,-0.0922156988,1.156032412,2.47
 97301698\C,1.4918728443,-0.3577947517,3.1038611903\C,1.127168427,2.035
 298667,2.9260919822\C,2.1935405739,0.9999411686,3.3953505532\C,1.43413
 85057,-0.49764341,1.5865941273\C,0.400671237,0.5030847248,1.1749784405
 \C,-0.2258963101,0.2974265632,4.9484004005\C,-0.95531922,-1.2185917229
 ,3.1212385026\C,-1.4043713454,1.9084888501,2.3433288138\H,1.9430547984
 ,-1.2172010792,3.6113500234\H,0.8212693261,2.7072026593,3.7358808874\H

 Normal termination of Gaussian 16 at Wed Apr 17 17:29:06 2019.
