                         Program Version 4.1.2  - RELEASE  -
|  1> !RHF RI-MP2-F12 cc-pVDZ-F12 cc-pVDZ-F12-CABS cc-pVTZ/C TIGHTSCF
|  2> !miniprint nopop nomoprint
|  3> %maxcore 64000
|  4> %pal
|  5>    nprocs 16
|  6>    end
|  7> %scf
|  8>    Guess PModel
|  9>    SCFMode Direct
| 10>    MaxDisk 1000
| 11>    end
| 12> %method
| 13>    FrozenCore FC_ELECTRONS
| 14>    end
| 15> %base "water-dimer"
| 16> * xyzfile 0 1 water-dimer.xyz
| 17>
| 18>                          ****END OF INPUT****

CARTESIAN COORDINATES (ANGSTROEM)
---------------------------------
  O     -1.628930   -0.041380    0.371370
  H     -0.698030   -0.091680    0.093370
  H     -2.066630   -0.734980   -0.136630
  O      1.214570    0.031720   -0.276230
  H      1.449270    0.916720   -0.585730
  H      1.729770   -0.080380    0.533870

ORBITAL ENERGIES
----------------

  NO   OCC          E(Eh)            E(eV)
   0   2.0000     -20.593806      -560.3859
   1   2.0000     -20.536994      -558.8400
   2   2.0000      -1.377320       -37.4788
   3   2.0000      -1.319177       -35.8966
   4   2.0000      -0.738632       -20.0992
   5   2.0000      -0.691055       -18.8046
   6   2.0000      -0.614259       -16.7148
   7   2.0000      -0.558554       -15.1990
   8   2.0000      -0.529829       -14.4174
   9   2.0000      -0.479590       -13.0503
  10   0.0000       0.095685         2.6037
  11   0.0000       0.128365         3.4930
  12   0.0000       0.135554         3.6886
  13   0.0000       0.147517         4.0141
  14   0.0000       0.170775         4.6470

Total SCF time: 0 days 0 hours 0 min 2 sec

MP2 TOTAL ENERGY:     -152.723609215 Eh
FINAL SINGLE POINT ENERGY      -152.723609215484

DIPOLE MOMENT
-------------
                                X             Y             Z
Electronic contribution:      0.01221       0.01992       0.01460
Nuclear contribution   :      1.03471       0.02414      -0.23756
                        -----------------------------------------
Total Dipole Moment    :      1.04692       0.04406      -0.22296
                        -----------------------------------------
Magnitude (a.u.)       :      1.07130
Magnitude (Debye)      :      2.72304

Rotational constants in cm-1:     7.152009     0.212826     0.212794
Rotational constants in MHz : 214411.849412  6380.371297  6379.401070

                             ****ORCA TERMINATED NORMALLY****
TOTAL RUN TIME: 0 days 0 hours 0 minutes 12 seconds 141 msec
