                               Psi4 1.3.1 release

  ==> Input File <==

--------------------------------------------------------------------------
#! SAPT2+3(CCD) aug-cc-pVDZ+midbond computation of the water dimer interaction energy,
#! using the aug-cc-pVDZ-JKFIT DF basis for SCF and aug-cc-pVDZ-RI for SAPT.

memory 1 GB

molecule dimer {
0 1
O  -1.551007  -0.114520   0.000000
H  -1.934259   0.762503   0.000000
H  -0.599677   0.040712   0.000000
--
0 1
O   1.350625   0.111469   0.000000
H   1.680398  -0.373741  -0.758561
H   1.680398  -0.373741   0.758561
--
@He 0.321738   0.016205   0.000000
}

set {
basis aug-cc-pvdz
scf_type df
e_convergence 10
guess sad
freeze_core true
nat_orbs_t3 true
}

energy('sapt2+3(ccd)')

ref_dict = { #TEST
    "SAPT ELST ENERGY" : -0.0130799218, #TEST
    "SAPT EXCH ENERGY" :  0.0134281026, #TEST
    "SAPT IND ENERGY" : -0.0039857670, #TEST
    "SAPT DISP ENERGY" : -0.0039040389, #TEST
    "SAPT0 TOTAL ENERGY" : -0.0088460989, #TEST
    "SAPT2 TOTAL ENERGY" : -0.0070471173, #TEST
    "SAPT2+ TOTAL ENERGY" : -0.0077595114, #TEST
    "SAPT2+(3) TOTAL ENERGY" : -0.0073764424, #TEST
    "SAPT2+3 TOTAL ENERGY" : -0.0075701074, #TEST
    "SAPT2+(CCD) TOTAL ENERGY" : -0.0077310292, #TEST
    "SAPT2+(3)(CCD) TOTAL ENERGY" : -0.0073479602, #TEST
    "SAPT2+3(CCD) TOTAL ENERGY" : -0.0075416252, #TEST
} #TEST

for key, ref in ref_dict.items():  #TEST
    compare_values(ref, psi4.variable(key), 6, key)  #TEST
--------------------------------------------------------------------------

  //              Dimer HF             //
    Molecular point group: c1
  Charge       = 0
  Multiplicity = 1
  Basis Set: AUG-CC-PVDZ
    Blend: AUG-CC-PVDZ
  Basis Set: (AUG-CC-PVDZ AUX)
    Blend: AUG-CC-PVDZ-JKFIT + DEF2-QZVPP-JKFIT
  @DF-RHF Final Energy:  -152.08983392969040
    Total Energy =                       -152.0898339296903998
  //            Monomer A HF           //
    Molecular point group: c1
  Multiplicity = 1
  Basis Set: AUG-CC-PVDZ
    Blend: AUG-CC-PVDZ
  Basis Set: (AUG-CC-PVDZ AUX)
    Blend: AUG-CC-PVDZ-JKFIT + DEF2-QZVPP-JKFIT
  @DF-RHF Final Energy:   -76.04186956497178
    Total Energy =                        -76.0418695649717762
  //            Monomer B HF           //
    Molecular point group: c1

    Geometry (in Angstrom), charge = 0, multiplicity = 1:

       Center              X                  Y                   Z               Mass
    ------------   -----------------  -----------------  -----------------  -----------------
      Gh(O)          -1.523923738686    -0.116324699587     0.000000000000    15.994914619570
      Gh(H)          -1.907175738686     0.760698300413     0.000000000000     1.007825032230
      Gh(H)          -0.572593738686     0.038907300413     0.000000000000     1.007825032230
         O            1.377708261314     0.109664300413     0.000000000000    15.994914619570
         H            1.707481261314    -0.375545699587    -0.758561000000     1.007825032230
         H            1.707481261314    -0.375545699587     0.758561000000     1.007825032230
      Gh(HE)          0.348821261314     0.014400300413     0.000000000000     4.002603254130

  Charge       = 0
  Multiplicity = 1
  Basis Set: AUG-CC-PVDZ
    Blend: AUG-CC-PVDZ
  Basis Set: (AUG-CC-PVDZ AUX)
    Blend: AUG-CC-PVDZ-JKFIT + DEF2-QZVPP-JKFIT

    Orbital Energies [Eh]
    ---------------------

    Doubly Occupied:

       1A    -20.577905     2A     -1.355668     3A     -0.717990
       4A     -0.584693     5A     -0.509095

  @DF-RHF Final Energy:   -76.04225319156581

   => Energetics <=

    Nuclear Repulsion Energy =              9.1780389409790644
    One-Electron Energy =                -122.9498830826221933
    Two-Electron Energy =                  37.7295909500773377
    Total Energy =                        -76.0422531915657913

  Dipole Moment: [D]
     X:     1.1158      Y:    -1.6460      Z:     0.0000     Total:     1.9885

    SAPT Results
  --------------------------------------------------------------------------------------------------------
    Electrostatics                -13.07991983 [mEh]      -8.20777361 [kcal/mol]     -34.34132479 [kJ/mol]
      Elst10,r                    -13.34417179 [mEh]      -8.37359422 [kcal/mol]     -35.03511820 [kJ/mol]
      Elst12,r                     -0.01035329 [mEh]      -0.00649679 [kcal/mol]      -0.02718256 [kJ/mol]
      Elst13,r                      0.27460525 [mEh]       0.17231739 [kcal/mol]       0.72097597 [kJ/mol]

    Exchange                       13.42809932 [mEh]       8.42625954 [kcal/mol]      35.25546991 [kJ/mol]
      Exch10                       11.22821297 [mEh]       7.04581001 [kcal/mol]      29.47966908 [kJ/mol]
      Exch10(S^2)                  11.14821343 [mEh]       6.99560955 [kcal/mol]      29.26963034 [kJ/mol]
      Exch11(S^2)                   0.07299012 [mEh]       0.04580199 [kcal/mol]       0.19163553 [kJ/mol]
      Exch12(S^2)                   2.12689624 [mEh]       1.33464754 [kcal/mol]       5.58416531 [kJ/mol]

    Induction                      -3.98576579 [mEh]      -2.50110579 [kcal/mol]     -10.46462664 [kJ/mol]
      Ind20,r                      -4.61755255 [mEh]      -2.89755797 [kcal/mol]     -12.12338256 [kJ/mol]
      Ind30,r                      -4.88624831 [mEh]      -3.06616710 [kcal/mol]     -12.82884316 [kJ/mol]
      Ind22                        -0.83915736 [mEh]      -0.52657919 [kcal/mol]      -2.20320734 [kJ/mol]
      Exch-Ind20,r                  2.46850165 [mEh]       1.54900817 [kcal/mol]       6.48105019 [kJ/mol]
      Exch-Ind30,r                  4.30951053 [mEh]       2.70425869 [kcal/mol]      11.31461834 [kJ/mol]
      Exch-Ind22                    0.44860590 [mEh]       0.28150445 [kcal/mol]       1.17781463 [kJ/mol]
      delta HF,r (2)               -1.44616343 [mEh]      -0.90748125 [kcal/mol]      -3.79690156 [kJ/mol]
      delta HF,r (3)               -0.86942565 [mEh]      -0.54557283 [kcal/mol]      -2.28267673 [kJ/mol]

    Dispersion                     -3.90403868 [mEh]      -2.44982126 [kcal/mol]     -10.25005215 [kJ/mol]
      Disp20                       -3.83263481 [mEh]      -2.40501465 [kcal/mol]     -10.06258131 [kJ/mol]
      Disp30                        0.10846364 [mEh]       0.06806196 [kcal/mol]       0.28477125 [kJ/mol]
      Disp21                        0.07081434 [mEh]       0.04443667 [kcal/mol]       0.18592302 [kJ/mol]
      Disp22 (SDQ)                 -0.19241725 [mEh]      -0.12074364 [kcal/mol]      -0.50519141 [kJ/mol]
      Disp22 (T)                   -0.50414941 [mEh]      -0.31635853 [kcal/mol]      -1.32364409 [kJ/mol]
      Est. Disp22 (T)              -0.59079117 [mEh]      -0.37072705 [kcal/mol]      -1.55112199 [kJ/mol]
      Disp2 (CCD)                  -3.55353111 [mEh]      -2.22987444 [kcal/mol]      -9.32979464 [kJ/mol]
      Disp22 (S) (CCD)             -0.32738595 [mEh]      -0.20543778 [kcal/mol]      -0.85955168 [kJ/mol]
      Disp22 (T) (CCD)             -0.54241213 [mEh]      -0.34036875 [kcal/mol]      -1.42410286 [kJ/mol]
      Est. Disp22 (T) (CCD)        -0.63562962 [mEh]      -0.39886361 [kcal/mol]      -1.66884534 [kJ/mol]
      Exch-Disp20                   0.69770931 [mEh]       0.43781920 [kcal/mol]       1.83183553 [kJ/mol]
      Exch-Disp30                  -0.03635154 [mEh]      -0.02281094 [kcal/mol]      -0.09544095 [kJ/mol]
      Ind-Disp30                   -0.92916465 [mEh]      -0.58305962 [kcal/mol]      -2.43952147 [kJ/mol]
      Exch-Ind-Disp30               0.77185124 [mEh]       0.48434397 [kcal/mol]       2.02649516 [kJ/mol]

  Total HF                         -5.71117315 [mEh]      -3.58381526 [kcal/mol]     -14.99468305 [kJ/mol]
  Total SAPT0                      -8.84609866 [mEh]      -5.55101071 [kcal/mol]     -23.22542882 [kJ/mol]
  Total SAPT2                      -7.04711705 [mEh]      -4.42213271 [kcal/mol]     -18.50220327 [kJ/mol]
  Total SAPT2+                     -7.75951113 [mEh]      -4.86916674 [kcal/mol]     -20.37259365 [kJ/mol]
  Total SAPT2+(3)                  -7.37644224 [mEh]      -4.62878739 [kcal/mol]     -19.36684643 [kJ/mol]
  Total SAPT2+3                    -7.57010719 [mEh]      -4.75031398 [kcal/mol]     -19.87531369 [kJ/mol]
  Total SAPT2+(CCD)                -7.73102892 [mEh]      -4.85129389 [kcal/mol]     -20.29781362 [kJ/mol]
  Total SAPT2+(3)(CCD)             -7.34796003 [mEh]      -4.61091453 [kcal/mol]     -19.29206640 [kJ/mol]
  Total SAPT2+3(CCD)               -7.54162498 [mEh]      -4.73244112 [kcal/mol]     -19.80053366 [kJ/mol]

  Special recipe for scaled SAPT0 (see Manual):
    Electrostatics sSAPT0         -13.34417179 [mEh]      -8.37359422 [kcal/mol]     -35.03511820 [kJ/mol]
    Exchange sSAPT0                11.22821297 [mEh]       7.04581001 [kcal/mol]      29.47966908 [kJ/mol]
    Induction sSAPT0               -3.54169020 [mEh]      -2.22244415 [kcal/mol]      -9.29870634 [kJ/mol]
    Dispersion sSAPT0              -3.11979718 [mEh]      -1.95770229 [kcal/mol]      -8.19102638 [kJ/mol]
  Total sSAPT0                     -8.77744621 [mEh]      -5.50793065 [kcal/mol]     -23.04518184 [kJ/mol]
  --------------------------------------------------------------------------------------------------------

*** Psi4 exiting successfully. Buy a developer a beer!
